 Gaussian 16, Revision A.03,
 Gaussian 16:  EM64L-G16RevA.03 25-Dec-2016

 -------------------------------------------------
 #N B3LYP/6-311+G(2d,p) OPT FREQ Geom=Connectivity
 -------------------------------------------------

 -----
 C10H8
 -----
 Symbolic Z-matrix:
 Charge =  0 Multiplicity = 1

 SCF Done:  E(RB3LYP) =  -385.894815355     A.U. after   13 cycles
 SCF Done:  E(RB3LYP) =  -385.939924634     A.U. after   12 cycles
 SCF Done:  E(RB3LYP) =  -385.945356319     A.U. after   12 cycles
 SCF Done:  E(RB3LYP) =  -385.945539830     A.U. after   10 cycles
 SCF Done:  E(RB3LYP) =  -385.945592448     A.U. after   10 cycles
 Optimization completed.
    -- Stationary point found.
 Normal termination of Gaussian 16 at Wed Jun 16 15:24:23 2021.

 ----------------------------------------------------------------------
 #N Geom=AllCheck Guess=TCheck SCRF=Check GenChk RB3LYP/6-311+G(2d,p) F
 req
 ----------------------------------------------------------------------

 Structure from the checkpoint file:  "/scratch/webmo-2372/3106/Gau-10433.chk"
 -----
 C10H8
 -----
 Charge =  0 Multiplicity = 1

                         Standard orientation:
 ---------------------------------------------------------------------
 Center     Atomic      Atomic             Coordinates (Angstroms)
 Number     Number       Type             X           Y           Z
 ---------------------------------------------------------------------
      1          6           0        0.000000   -1.146837    1.896410
      2          6           0        0.000000   -0.000000    2.700961
      3          6           0        0.000000    1.146837    1.896410
      4          6           0        0.000000    0.747876    0.551433
      5          6           0       -0.000000    1.590735   -0.550371
      6          6           0       -0.000000    1.262426   -1.904971
      7          6           0       -0.000000    0.000000   -2.495129
      8          6           0       -0.000000   -1.262426   -1.904971
      9          6           0       -0.000000   -1.590735   -0.550371
     10          6           0       -0.000000   -0.747876    0.551433
     11          1           0        0.000000   -2.654069   -0.322776
     12          1           0       -0.000000   -2.101828   -2.592456
     13          1           0       -0.000000    0.000000   -3.581412
     14          1           0        0.000000    2.101828   -2.592456
     15          1           0        0.000000    2.654069   -0.322776
     16          1           0        0.000000    2.170754    2.241966
     17          1           0        0.000000   -0.000000    3.782939
     18          1           0       -0.000000   -2.170754    2.241966
 ---------------------------------------------------------------------

 SCF Done:  E(RB3LYP) =  -385.945592448     A.U. after    1 cycles

 The electronic state is 1-A1.
 Alpha  occ. eigenvalues --  -10.19722 -10.19720 -10.19493 -10.18573 -10.18550
 Alpha  occ. eigenvalues --  -10.18548 -10.18544 -10.17417 -10.16135 -10.16132
 Alpha  occ. eigenvalues --   -0.88193  -0.83100  -0.79482  -0.74459  -0.71090
 Alpha  occ. eigenvalues --   -0.65416  -0.62550  -0.55779  -0.55385  -0.52201
 Alpha  occ. eigenvalues --   -0.50144  -0.46126  -0.45892  -0.41574  -0.40067
 Alpha  occ. eigenvalues --   -0.39589  -0.38337  -0.38096  -0.36542  -0.34013
 Alpha  occ. eigenvalues --   -0.33903  -0.30950  -0.24178  -0.20369
 Alpha virt. eigenvalues --   -0.08269  -0.05059  -0.00223   0.01170   0.01684
 Alpha virt. eigenvalues --    0.03382   0.03586   0.04358   0.05375   0.05778
 Alpha virt. eigenvalues --    0.06252   0.06277   0.06663   0.07517   0.09169

 Mulliken charges:
               1
     1  C   -0.183788
     2  C   -0.190808
     3  C   -0.183788
     4  C    0.343632
     5  C   -0.304106
     6  C   -0.122848
     7  C    0.026478
     8  C   -0.122848
     9  C   -0.304106
    10  C    0.343632
    11  H    0.092896
    12  H    0.084997
    13  H    0.089279
    14  H    0.084997
    15  H    0.092896
    16  H    0.082326
    17  H    0.088830
    18  H    0.082326
 Sum of Mulliken charges =  -0.00000

 Dipole moment (field-independent basis, Debye):
    X=              0.0000    Y=             -0.0000    Z=             -1.0360  Tot=              1.0360
 Quadrupole moment (field-independent basis, Debye-Ang):
   XX=            -64.6609   YY=            -51.7103   ZZ=            -52.6296
   XY=              0.0000   XZ=             -0.0000   YZ=             -0.0000

  Exact polarizability:  64.939  -0.000 129.163   0.000  -0.000 193.660
 Approx polarizability: 103.621   0.000 233.868   0.000   0.000 399.785

                      1                      2                      3
                     A2                     B1                     B1
 Frequencies --    161.0624               169.6900               317.5158
 Red. masses --      3.8361                 3.8353                 3.1017
 Frc consts  --      0.0586                 0.0651                 0.1842
 IR Inten    --      0.0000                 2.2198                11.0043

                      4                      5                      6
                     B2                     A1                     A2
 Frequencies --    340.3092               412.8300               426.2212
 Red. masses --      4.3919                 6.9483                 3.0843
 Frc consts  --      0.2997                 0.6977                 0.3301
 IR Inten    --      0.9248                 1.6416                 0.0000

                      7                      8                      9
                     B2                     B1                     B1
 Frequencies --    498.7399               571.5475               604.4862
 Red. masses --      5.6795                 2.4964                 3.2409
 Frc consts  --      0.8324                 0.4805                 0.6977
 IR Inten    --      1.8270                10.8978                 0.3227

                     10                     11                     12
                     A1                     A2                     B1
 Frequencies --    679.0322               721.3631               735.8699
 Red. masses --      5.1595                 2.6818                 1.1625
 Frc consts  --      1.4016                 0.8222                 0.3709
 IR Inten    --      1.1750                 0.0000                 1.4951

                     13                     14                     15
                     B2                     B1                     A2
 Frequencies --    744.4762               777.2045               789.0116
 Red. masses --      5.7945                 1.3057                 1.4680
 Frc consts  --      1.8922                 0.4647                 0.5384
 IR Inten    --      0.3935               125.0628                 0.0000

                     16                     17                     18
                     A1                     A2                     A1
 Frequencies --    834.6946               872.0662               919.4739
 Red. masses --      5.2456                 1.4453                 5.7348
 Frc consts  --      2.1533                 0.6476                 2.8566
 IR Inten    --      6.6565                 0.0000                 2.8929

                     19                     20                     21
                     B1                     A1                     B1
 Frequencies --    926.4872               959.2510               973.4563
 Red. masses --      1.3764                 3.1090                 1.3988
 Frc consts  --      0.6961                 1.6855                 0.7810
 IR Inten    --      0.1337                 3.8119                 5.6781

                     22                     23                     24
                     A2                     B1                     B2
 Frequencies --    990.1128              1006.3924              1019.4677
 Red. masses --      1.3736                 1.3133                 2.0430
 Frc consts  --      0.7934                 0.7837                 1.2510
 IR Inten    --      0.0000                 0.0064                12.3601

                     25                     26                     27
                     B2                     A1                     B2
 Frequencies --   1065.4603              1080.7662              1185.1413
 Red. masses --      1.7364                 1.5384                 1.8618
 Frc consts  --      1.1614                 1.0587                 1.5407
 IR Inten    --      1.0341                 6.9192                 0.3335

                     28                     29                     30
                     B2                     A1                     A1
 Frequencies --   1241.6708              1243.1848              1296.2640
 Red. masses --      1.4472                 1.3411                 3.0019
 Frc consts  --      1.3146                 1.2212                 2.9719
 IR Inten    --      7.0696                 0.4243                 4.8068

                     31                     32                     33
                     B2                     B2                     A1
 Frequencies --   1325.0736              1338.4323              1421.0289
 Red. masses --      1.2863                 1.8267                 2.5142
 Frc consts  --      1.3306                 1.9280                 2.9913
 IR Inten    --      2.4748                 1.2645                99.7720

                     34                     35                     36
                     B2                     A1                     B2
 Frequencies --   1429.0642              1487.2537              1491.9957
 Red. masses --      2.0376                 2.3870                 1.7573
 Frc consts  --      2.4518                 3.1109                 2.3048
 IR Inten    --      0.0169                13.6614                 8.2871

                     37                     38                     39
                     B2                     A1                     A1
 Frequencies --   1524.1133              1579.4533              1623.4712
 Red. masses --      5.5656                 2.9745                 7.1164
 Frc consts  --      7.6172                 4.3720                11.0510
 IR Inten    --      7.4301                 4.1513                62.8220

                     40                     41                     42
                     B2                     A1                     B2
 Frequencies --   1638.9028              3125.7220              3127.5391
 Red. masses --      4.3771                 1.0841                 1.0861
 Frc consts  --      6.9270                 6.2404                 6.2596
 IR Inten    --      4.6694                 0.1797                11.9078

                     43                     44                     45
                     A1                     B2                     A1
 Frequencies --   3135.5524              3154.5911              3162.8935
 Red. masses --      1.0873                 1.0900                 1.0924
 Frc consts  --      6.2981                 6.3907                 6.4390
 IR Inten    --      6.0016                28.0302                18.7742

                     46                     47                     48
                     A1                     B2                     A1
 Frequencies --   3193.2327              3210.8544              3219.1106
 Red. masses --      1.0886                 1.0933                 1.1014
 Frc consts  --      6.5400                 6.6409                 6.7248
 IR Inten    --      6.1772                10.6283                 8.2926

 - Thermochemistry -
 -------------------
 Temperature   298.150 Kelvin.  Pressure   1.00000 Atm.
 Atom     1 has atomic number  6 and mass  12.00000

 Molecular mass:   128.06260 amu.
 Principal axes and moments of inertia in atomic units:
                           1         2         3
     Eigenvalues --   630.543031433.613512064.15654
           X            0.00000  -0.00000   1.00000
           Y            0.00000   1.00000   0.00000
           Z            1.00000   0.00000   0.00000
 This molecule is an asymmetric top.
 Rotational symmetry number  2.
 Warning -- assumption of classical behavior for rotation
           may cause significant error
 Rotational temperatures (Kelvin)      0.13736     0.06042     0.04196
 Rotational constants (GHZ):           2.86220     1.25888     0.87432
 Zero-point vibrational energy     381318.9 (Joules/Mol)
                                   91.13739 (Kcal/Mol)
 Warning -- explicit consideration of   9 degrees of freedom as
           vibrations may cause significant error
 Vibrational temperatures:    231.73   244.15   456.83   489.63   593.97
          (Kelvin)            613.24   717.58   822.33   869.72   976.98
                             1037.88  1058.75  1071.14  1118.22  1135.21
                             1200.94  1254.71  1322.92  1333.01  1380.15
                             1400.59  1424.55  1447.97  1466.79  1532.96
                             1554.98  1705.15  1786.49  1788.67  1865.03
                             1906.49  1925.71  2044.54  2056.10  2139.83
                             2146.65  2192.86  2272.48  2335.81  2358.02
                             4497.22  4499.83  4511.36  4538.75  4550.70
                             4594.35  4619.70  4631.58

 Zero-point correction=                           0.145237 (Hartree/Particle)
 Thermal correction to Energy=                    0.152393
 Thermal correction to Enthalpy=                  0.153337
 Thermal correction to Gibbs Free Energy=         0.114341
 Sum of electronic and zero-point Energies=           -385.800356
 Sum of electronic and thermal Energies=              -385.793200
 Sum of electronic and thermal Enthalpies=            -385.792256
 Sum of electronic and thermal Free Energies=         -385.831251

                     E (Thermal)             CV                S
                      KCal/Mol        Cal/Mol-Kelvin    Cal/Mol-Kelvin
 Total                   95.628             29.901             82.073
 Electronic               0.000              0.000              0.000
 Translational            0.889              2.981             40.455
 Rotational               0.889              2.981             27.636
 Vibrational             93.850             23.940             13.981
 Vibration     1          0.622              1.890              2.537
 Vibration     2          0.625              1.880              2.439
 Vibration     3          0.704              1.640              1.323
 Vibration     4          0.720              1.595              1.211
 Vibration     5          0.777              1.442              0.917
 Vibration     6          0.788              1.413              0.871
 Vibration     7          0.854              1.253              0.661
 Vibration     8          0.928              1.093              0.501
 Vibration     9          0.963              1.022              0.442

 Optimization completed.
    -- Stationary point found.
 Normal termination of Gaussian 16 at Wed Jun 16 16:35:06 2021.
